 Gaussian 03, Revision D.01,
 Gaussian 03:  IA32L-G03RevD.01 13-Oct-2005

 ----------------------------------------------------------------
 # freq b3lyp/6-31g(d) scrf=check guess=read genchk geom=allcheck
 ----------------------------------------------------------------

 Title Card Required
 -------------------
 Redundant internal coordinates taken from checkpoint file:
 Naph3.chk
 Charge =  0 Multiplicity = 1

                         Standard orientation:
 ---------------------------------------------------------------------
 Center     Atomic     Atomic              Coordinates (Angstroms)
 Number     Number      Type              X           Y           Z
 ---------------------------------------------------------------------
    1          6             0       -2.416051    0.708237    0.000001
    2          6             0       -1.242701    1.392594   -0.000011
    3          6             0       -0.000008    0.704681    0.000002
    4          6             0       -0.000010   -0.704684    0.000000
    5          6             0       -1.242705   -1.392594   -0.000001
    6          6             0       -2.416054   -0.708234    0.000006
    7          1             0        1.240429    2.468753    0.000001
    8          1             0       -3.351945    1.237951    0.000002
    9          1             0       -1.240435    2.468746   -0.000012
   10          6             0        1.242719    1.392601    0.000006
   11          6             0        1.242718   -1.392601   -0.000003
   12          1             0       -1.240441   -2.468746    0.000001
   13          1             0       -3.351950   -1.237944    0.000008
   14          6             0        2.416044   -0.708251   -0.000007
   15          6             0        2.416047    0.708252    0.000006
   16          1             0        1.240442   -2.468752    0.000003
   17          1             0        3.351949   -1.237948   -0.000005
   18          1             0        3.351954    1.237942    0.000006
 ---------------------------------------------------------------------

 SCF Done:  E(RB+HF-LYP) =  -385.890453831     A.U. after   10 cycles

 The electronic state is 1-A.
 Alpha  occ. eigenvalues --  -10.19162 -10.19112 -10.18513 -10.18513 -10.18480
 Alpha  occ. eigenvalues --  -10.18479 -10.18418 -10.18417 -10.18406 -10.18405
 Alpha  occ. eigenvalues --   -0.87315  -0.82039  -0.77084  -0.73840  -0.71926
 Alpha  occ. eigenvalues --   -0.62200  -0.60941  -0.59610  -0.51517  -0.50818
 Alpha  occ. eigenvalues --   -0.49210  -0.44677  -0.43869  -0.41672  -0.41310
 Alpha  occ. eigenvalues --   -0.40045  -0.38842  -0.36561  -0.33494  -0.32820
 Alpha  occ. eigenvalues --   -0.32540  -0.28131  -0.24069  -0.21499
 Alpha virt. eigenvalues --   -0.03078  -0.00291   0.03705   0.09799   0.10796
 Alpha virt. eigenvalues --    0.11658   0.12515   0.16993   0.17050   0.17932
 Alpha virt. eigenvalues --    0.18620   0.21004   0.21131   0.25007   0.29399

 Mulliken atomic charges:
              1
     1  C   -0.133835
     2  C   -0.186341
     3  C    0.131218
     4  C    0.131219
     5  C   -0.186341
     6  C   -0.133835
     7  H    0.127088
     8  H    0.127471
     9  H    0.127088
    10  C   -0.186322
    11  C   -0.186324
    12  H    0.127088
    13  H    0.127471
    14  C   -0.133838
    15  C   -0.133839
    16  H    0.127088
    17  H    0.127471
    18  H    0.127471
 Sum of Mulliken charges=   0.00000

 Dipole moment (field-independent basis, Debye):
    X=     0.0000    Y=     0.0000    Z=     0.0000  Tot=     0.0000
 Quadrupole moment (field-independent basis, Debye-Ang):
   XX=   -50.7235   YY=   -51.0588   ZZ=   -61.8651
   XY=     0.0000   XZ=     0.0000   YZ=     0.0000

  Exact polarizability: 149.389   0.000 107.685   0.000   0.000  32.475
 Approx polarizability: 254.628   0.000 190.842   0.000   0.000  50.701

                     1                      2                      3
                     A                      A                      A
 Frequencies --   106.2779               165.5745               345.0942
 Red. masses --     3.8874                 3.1287                 3.7211
 Frc consts  --     0.0259                 0.0505                 0.2611
 IR Inten    --     2.0031                 0.0000                 1.0904

                     4                      5                      6
                     A                      A                      A
 Frequencies --   366.4372               453.3536               461.2404
 Red. masses --     3.0620                 3.1006                 2.1823
 Frc consts  --     0.2422                 0.3755                 0.2735
 IR Inten    --     0.0000                 0.0000                19.6394

                     7                      8                      9
                     A                      A                      A
 Frequencies --   518.6664               523.0925               619.5193
 Red. masses --     7.0079                 6.5878                 3.3852
 Frc consts  --     1.1108                 1.0621                 0.7655
 IR Inten    --     0.0000                 0.0000                 0.0000

                    10                     11                     12
                     A                      A                      A
 Frequencies --   632.3215               668.8201               757.5431
 Red. masses --     6.2266                 1.1517                 1.4874
 Frc consts  --     1.4668                 0.3035                 0.5029
 IR Inten    --     4.0516                 0.0000                82.0028

                    13                     14                     15
                     A                      A                      A
 Frequencies --   766.1583               789.5139               802.7244
 Red. masses --     2.2560                 4.2261                 1.3171
 Frc consts  --     0.7803                 1.5521                 0.5000
 IR Inten    --     0.0000                 0.0000                 0.0000

                    16                     17                     18
                     A                      A                      A
 Frequencies --   808.7948               869.1631               911.1169
 Red. masses --     5.2089                 2.1983                 1.3200
 Frc consts  --     2.0076                 0.9785                 0.6456
 IR Inten    --     0.1996                 0.0000                 0.0000

                    19                     20                     21
                     A                      A                      A
 Frequencies --   928.9388               948.3304               949.3847
 Red. masses --     1.4162                 4.9426                 1.2873
 Frc consts  --     0.7200                 2.6189                 0.6836
 IR Inten    --     3.5049                 0.0000                 0.0000

                    22                     23                     24
                     A                      A                      A
 Frequencies --   959.9351              1046.9257              1055.3699
 Red. masses --     1.3234                 2.3718                 2.0613
 Frc consts  --     0.7185                 1.5316                 1.3527
 IR Inten    --     0.0000                 5.1200                 0.0000

                    25                     26                     27
                     A                      A                      A
 Frequencies --  1159.1144              1178.5664              1178.7728
 Red. masses --     1.6285                 1.0963                 1.0581
 Frc consts  --     1.2891                 0.8972                 0.8662
 IR Inten    --     4.1299                 1.0050                 0.0000

                    28                     29                     30
                     A                      A                      A
 Frequencies --  1184.1015              1241.4518              1266.8390
 Red. masses --     1.1644                 2.2702                 1.5970
 Frc consts  --     0.9619                 2.0614                 1.5101
 IR Inten    --     0.0000                 1.0362                 0.0000

                    31                     32                     33
                     A                      A                      A
 Frequencies --  1292.5654              1419.9536              1467.4851
 Red. masses --     1.7364                 1.7019                 4.6128
 Frc consts  --     1.7092                 2.0218                 5.8528
 IR Inten    --     7.1924                 3.4690                 1.2777

                    34                     35                     36
                     A                      A                      A
 Frequencies --  1478.2536              1508.2284              1513.1653
 Red. masses --     4.8531                 2.4960                 2.8291
 Frc consts  --     6.2483                 3.3453                 3.8166
 IR Inten    --     0.0000                 0.0000                 0.0000

                    37                     38                     39
                     A                      A                      A
 Frequencies --  1568.8193              1684.5956              1713.1592
 Red. masses --     3.7994                 7.7351                 5.8378
 Frc consts  --     5.5095                12.9332                10.0947
 IR Inten    --     6.2599                 0.0000                 3.5094

                    40                     41                     42
                     A                      A                      A
 Frequencies --  1728.8564              3281.7625              3283.4472
 Red. masses --     6.6139                 1.0851                 1.0850
 Frc consts  --    11.6473                 6.8853                 6.8918
 IR Inten    --     0.0000                 0.0000                 6.2661

                    43                     44                     45
                     A                      A                      A
 Frequencies --  3285.7432              3289.1078              3300.5606
 Red. masses --     1.0880                 1.0874                 1.0942
 Frc consts  --     6.9205                 6.9310                 7.0230
 IR Inten    --     1.6486                 0.0000                 0.0000

                    46                     47                     48
                     A                      A                      A
 Frequencies --  3301.9636              3312.6402              3314.0199
 Red. masses --     1.0943                 1.0976                 1.0973
 Frc consts  --     7.0296                 7.0963                 7.1004
 IR Inten    --    69.2257                56.4033                 0.0000

 - Thermochemistry -
 -------------------
 Temperature   298.150 Kelvin.  Pressure   1.00000 Atm.
 Atom  1 has atomic number  6 and mass  12.00000

 Molecular mass:   128.06260 amu.
 Principal axes and moments of inertia in atomic units:
                           1         2         3
     EIGENVALUES --   570.765171449.190822019.95599
           X            1.00000   0.00000   0.00000
           Y            0.00000   1.00000   0.00000
           Z            0.00000   0.00000   1.00000
 This molecule is an asymmetric top.
 Rotational symmetry number  1.
 Warning -- assumption of classical behavior for rotation
           may cause significant error
 Rotational temperatures (Kelvin)      0.15175     0.05977     0.04288
 Rotational constants (GHZ):           3.16197     1.24534     0.89346
 Zero-point vibrational energy     391223.5 (Joules/Mol)
                                   93.50467 (Kcal/Mol)
 Warning -- explicit consideration of   9 degrees of freedom as
           vibrations may cause significant error
 Vibrational temperatures:    152.91   238.22   496.51   527.22   652.27
          (Kelvin)            663.62   746.24   752.61   891.35   909.77
                              962.28  1089.93  1102.33  1135.93  1154.94
                             1163.67  1250.53  1310.89  1336.53  1364.43
                             1365.95  1381.13  1506.29  1518.44  1667.71
                             1695.69  1695.99  1703.66  1786.17  1822.70
                             1859.71  2042.99  2111.38  2126.87  2170.00
                             2177.10  2257.18  2423.75  2464.85  2487.44
                             4721.72  4724.14  4727.45  4732.29  4748.76
                             4750.78  4766.14  4768.13

 Zero-point correction=                           0.149009 (Hartree/Particle)
 Thermal correction to Energy=                    0.156162
 Thermal correction to Enthalpy=                  0.157106
 Thermal correction to Gibbs Free Energy=         0.117307
 Sum of electronic and zero-point Energies=           -385.741445
 Sum of electronic and thermal Energies=              -385.734292
 Sum of electronic and thermal Enthalpies=            -385.733347
 Sum of electronic and thermal Free Energies=         -385.773146

                     E (Thermal)             CV                S
                      KCal/Mol        Cal/Mol-Kelvin    Cal/Mol-Kelvin
 Total                   97.993             29.634             83.764
 Electronic               0.000              0.000              0.000
 Translational            0.889              2.981             40.455
 Rotational               0.889              2.981             28.904
 Vibrational             96.216             23.672             14.405
 Vibration  1             0.605              1.944              3.336
 Vibration  2             0.624              1.885              2.485
 Vibration  3             0.723              1.585              1.189
 Vibration  4             0.739              1.541              1.095
 Vibration  5             0.812              1.353              0.786
 Vibration  6             0.819              1.336              0.763
 Vibration  7             0.874              1.209              0.613
 Vibration  8             0.878              1.199              0.603
 Vibration  9             0.979              0.991              0.417

 Normal termination of Gaussian 03 at Sun Aug 31 01:44:11 2014.
