 Gaussian 03, Revision D.01,
 Gaussian 03:  IA32L-G03RevD.01 13-Oct-2005

 -------------------------------------------------
 # opt freq=noraman rhf/6-31g(d) geom=connectivity
 -------------------------------------------------

 -------------------
 Title Card Required
 -------------------
 Symbolic Z-matrix:
 Charge =  0 Multiplicity = 1

 SCF Done:  E(RHF) =  -383.350673004     A.U. after   14 cycles
 SCF Done:  E(RHF) =  -383.354958337     A.U. after   16 cycles
 SCF Done:  E(RHF) =  -383.355044142     A.U. after   13 cycles
 SCF Done:  E(RHF) =  -383.355045791     A.U. after   13 cycles
 Optimization completed.
    -- Stationary point found.
 Normal termination of Gaussian 03 at Sun Aug 31 01:04:55 2014.

 ---------------------------------------------------------------
 #N Geom=AllCheck Guess=Read SCRF=Check GenChk RHF/6-31G(d) Freq
 ---------------------------------------------------------------

 Title Card Required
 -------------------
 Redundant internal coordinates taken from checkpoint file:
 Naph2.chk
 Charge =  0 Multiplicity = 1

                         Standard orientation:
 ---------------------------------------------------------------------
 Center     Atomic     Atomic              Coordinates (Angstroms)
 Number     Number      Type              X           Y           Z
 ---------------------------------------------------------------------
    1          6             0       -2.416051    0.708237    0.000001
    2          6             0       -1.242701    1.392594   -0.000011
    3          6             0       -0.000008    0.704681    0.000002
    4          6             0       -0.000010   -0.704684    0.000000
    5          6             0       -1.242705   -1.392594   -0.000001
    6          6             0       -2.416054   -0.708234    0.000006
    7          1             0        1.240429    2.468753    0.000001
    8          1             0       -3.351945    1.237951    0.000002
    9          1             0       -1.240435    2.468746   -0.000012
   10          6             0        1.242719    1.392601    0.000006
   11          6             0        1.242718   -1.392601   -0.000003
   12          1             0       -1.240441   -2.468746    0.000001
   13          1             0       -3.351950   -1.237944    0.000008
   14          6             0        2.416044   -0.708251   -0.000007
   15          6             0        2.416047    0.708252    0.000006
   16          1             0        1.240442   -2.468752    0.000003
   17          1             0        3.351949   -1.237948   -0.000005
   18          1             0        3.351954    1.237942    0.000006
 ---------------------------------------------------------------------

 SCF Done:  E(RHF) =  -383.355045790     A.U. after    1 cycles

 The electronic state is 1-A.
 Alpha  occ. eigenvalues --  -11.23816 -11.23707 -11.23146 -11.23143 -11.23109
 Alpha  occ. eigenvalues --  -11.23101 -11.23003 -11.22998 -11.22939 -11.22937
 Alpha  occ. eigenvalues --   -1.17470  -1.10820  -1.04669  -1.00501  -0.98114
 Alpha  occ. eigenvalues --   -0.84854  -0.83317  -0.81051  -0.70268  -0.69838
 Alpha  occ. eigenvalues --   -0.67498  -0.62057  -0.60820  -0.58110  -0.58030
 Alpha  occ. eigenvalues --   -0.56346  -0.52964  -0.51869  -0.48339  -0.47285
 Alpha  occ. eigenvalues --   -0.44482  -0.37941  -0.31378  -0.28682
 Alpha virt. eigenvalues --    0.10345   0.13213   0.19159   0.23997   0.26105
 Alpha virt. eigenvalues --    0.26688   0.29242   0.31324   0.31821   0.32476
 Alpha virt. eigenvalues --    0.33991   0.36033   0.41721   0.42122   0.46986

 Mulliken atomic charges:
              1
     1  C   -0.209219
     2  C   -0.195529
     3  C   -0.003735
     4  C   -0.003734
     5  C   -0.195528
     6  C   -0.209219
     7  H    0.204409
     8  H    0.202198
     9  H    0.204409
    10  C   -0.195508
    11  C   -0.195509
    12  H    0.204409
    13  H    0.202198
    14  C   -0.209223
    15  C   -0.209223
    16  H    0.204409
    17  H    0.202198
    18  H    0.202198
 Sum of Mulliken charges=   0.00000

 Dipole moment (field-independent basis, Debye):
    X=     0.0000    Y=     0.0000    Z=     0.0000  Tot=     0.0000
 Quadrupole moment (field-independent basis, Debye-Ang):
   XX=   -50.6407   YY=   -50.8976   ZZ=   -64.0630
   XY=     0.0000   XZ=     0.0000   YZ=     0.0000

  Exact polarizability: 142.233   0.000 103.954   0.000   0.000  32.372
 Approx polarizability: 134.518   0.000 106.901   0.000   0.000  38.568

                     1                      2                      3
                     A                      A                      A
 Frequencies --   187.9613               205.5717               388.9780
 Red. masses --     4.2143                 3.3608                 3.8511
 Frc consts  --     0.0877                 0.0837                 0.3433
 IR Inten    --     2.0217                 0.0000                 1.6909

                     4                      5                      6
                     A                      A                      A
 Frequencies --   431.6702               519.5503               534.9425
 Red. masses --     3.2113                 3.2456                 2.5419
 Frc consts  --     0.3526                 0.5162                 0.4286
 IR Inten    --     0.0000                 0.0000                19.1266

                     7                      8                      9
                     A                      A                      A
 Frequencies --   551.1930               554.5558               674.4625
 Red. masses --     6.5961                 7.0755                 6.5157
 Frc consts  --     1.1807                 1.2820                 1.7463
 IR Inten    --     0.0000                 0.0000                 4.9507

                    10                     11                     12
                     A                      A                      A
 Frequencies --   684.8123               811.6250               831.2356
 Red. masses --     3.1974                 1.1468                 4.6770
 Frc consts  --     0.8835                 0.4451                 1.9040
 IR Inten    --     0.0000                 0.0000                 0.0000

                    13                     14                     15
                     A                      A                      A
 Frequencies --   853.5761               859.4819               886.9173
 Red. masses --     3.1596                 5.4888                 1.3662
 Frc consts  --     1.3563                 2.3889                 0.6332
 IR Inten    --     0.0000                 1.7515               124.7290

                    16                     17                     18
                     A                      A                      A
 Frequencies --   943.9475               993.2215              1022.6558
 Red. masses --     1.2777                 1.6636                 5.0431
 Frc consts  --     0.6708                 0.9669                 3.1075
 IR Inten    --     0.0000                 0.0000                 0.0000

                    19                     20                     21
                     A                      A                      A
 Frequencies --  1075.2267              1080.2757              1098.0439
 Red. masses --     3.6189                 1.3003                 1.3675
 Frc consts  --     2.4650                 0.8940                 0.9715
 IR Inten    --     2.0231                 0.0000                 3.9035

                    22                     23                     24
                     A                      A                      A
 Frequencies --  1116.8488              1117.1683              1124.4573
 Red. masses --     1.3189                 2.1917                 1.3323
 Frc consts  --     0.9693                 1.6117                 0.9925
 IR Inten    --     0.0000                 0.0000                 0.0000

                    25                     26                     27
                     A                      A                      A
 Frequencies --  1193.0979              1245.2939              1273.4587
 Red. masses --     1.9716                 1.8073                 1.2688
 Frc consts  --     1.6535                 1.6513                 1.2123
 IR Inten    --     2.6961                 3.0604                 0.0000

                    28                     29                     30
                     A                      A                      A
 Frequencies --  1286.9146              1311.5729              1372.7798
 Red. masses --     1.0762                 1.3892                 1.6802
 Frc consts  --     1.0501                 1.4080                 1.8656
 IR Inten    --     0.0000                 0.1213                 0.0000

                    31                     32                     33
                     A                      A                      A
 Frequencies --  1389.6407              1475.7795              1486.9449
 Red. masses --     1.8496                 2.3563                 9.5024
 Frc consts  --     2.1044                 3.0236                12.3787
 IR Inten    --     6.8866                 1.9333                 0.0000

                    34                     35                     36
                     A                      A                      A
 Frequencies --  1542.8982              1623.2792              1626.1092
 Red. masses --     1.5061                 2.2731                 1.8249
 Frc consts  --     2.1124                 3.5290                 2.8431
 IR Inten    --     3.6337                 0.0000                 0.0000

                    37                     38                     39
                     A                      A                      A
 Frequencies --  1683.6137              1782.9133              1805.8941
 Red. masses --     2.9756                 6.5212                 4.7052
 Frc consts  --     4.9695                12.2135                 9.0409
 IR Inten    --    11.4833                 0.0000                 8.2453

                    40                     41                     42
                     A                      A                      A
 Frequencies --  1844.9805              3349.4889              3352.0793
 Red. masses --     5.7260                 1.0868                 1.0865
 Frc consts  --    11.4838                 7.1838                 7.1931
 IR Inten    --     0.0000                 0.0000                 3.1306

                    43                     44                     45
                     A                      A                      A
 Frequencies --  3354.2042              3359.6225              3370.3150
 Red. masses --     1.0899                 1.0897                 1.0959
 Frc consts  --     7.2247                 7.2464                 7.3343
 IR Inten    --     2.4264                 0.0000                 0.0000

                    46                     47                     48
                     A                      A                      A
 Frequencies --  3373.0572              3384.4800              3386.3855
 Red. masses --     1.0961                 1.0986                 1.0984
 Frc consts  --     7.3476                 7.4144                 7.4211
 IR Inten    --    87.2557                72.8711                 0.0000

 - Thermochemistry -
 -------------------
 Temperature   298.150 Kelvin.  Pressure   1.00000 Atm.
 Atom  1 has atomic number  6 and mass  12.00000

 Molecular mass:   128.06260 amu.
 Principal axes and moments of inertia in atomic units:
                           1         2         3
     EIGENVALUES --   570.765171449.190822019.95599
           X            1.00000   0.00000   0.00000
           Y            0.00000   1.00000   0.00000
           Z            0.00000   0.00000   1.00000
 This molecule is an asymmetric top.
 Rotational symmetry number  1.
 Warning -- assumption of classical behavior for rotation
           may cause significant error
 Rotational temperatures (Kelvin)      0.15175     0.05977     0.04288
 Rotational constants (GHZ):           3.16197     1.24534     0.89346
 Zero-point vibrational energy     415242.8 (Joules/Mol)
                                   99.24542 (Kcal/Mol)
 Warning -- explicit consideration of   8 degrees of freedom as
           vibrations may cause significant error
 Vibrational temperatures:    270.43   295.77   559.65   621.08   747.52
          (Kelvin)            769.66   793.04   797.88   970.40   985.29
                             1167.75  1195.96  1228.10  1236.60  1276.07
                             1358.13  1429.02  1471.37  1547.01  1554.27
                             1579.84  1606.89  1607.35  1617.84  1716.60
                             1791.70  1832.22  1851.58  1887.06  1975.12
                             1999.38  2123.32  2139.38  2219.88  2335.53
                             2339.61  2422.34  2565.21  2598.28  2654.51
                             4819.16  4822.89  4825.95  4833.74  4849.13
                             4853.07  4869.51  4872.25

 Zero-point correction=                           0.158158 (Hartree/Particle)
 Thermal correction to Energy=                    0.164454
 Thermal correction to Enthalpy=                  0.165398
 Thermal correction to Gibbs Free Energy=         0.127259
 Sum of electronic and zero-point Energies=           -383.196888
 Sum of electronic and thermal Energies=              -383.190592
 Sum of electronic and thermal Enthalpies=            -383.189648
 Sum of electronic and thermal Free Energies=         -383.227786

                     E (Thermal)             CV                S
                      KCal/Mol        Cal/Mol-Kelvin    Cal/Mol-Kelvin
 Total                  103.196             26.160             80.269
 Electronic               0.000              0.000              0.000
 Translational            0.889              2.981             40.455
 Rotational               0.889              2.981             28.904
 Vibrational            101.419             20.198             10.910
 Vibration  1             0.633              1.856              2.248
 Vibration  2             0.640              1.832              2.083
 Vibration  3             0.757              1.494              1.004
 Vibration  4             0.793              1.401              0.853
 Vibration  5             0.875              1.207              0.611
 Vibration  6             0.890              1.173              0.576
 Vibration  7             0.907              1.137              0.542
 Vibration  8             0.910              1.130              0.535

 Optimization completed.
    -- Stationary point found.
 Normal termination of Gaussian 03 at Sun Aug 31 01:11:04 2014.
