 Gaussian 03, Revision D.01,
 Gaussian 03:  IA32L-G03RevD.01 13-Oct-2005

 ----------------------------------------------------------------------
 # freq=noraman b3lyp/6-311++g(d,p) scrf=check guess=read genchk geom=a
 llcheck
 ----------------------------------------------------------------------

 Title Card Required
 -------------------
 Redundant internal coordinates taken from checkpoint file:
 Naph4.chk
 Charge =  0 Multiplicity = 1

                         Standard orientation:
 ---------------------------------------------------------------------
 Center     Atomic     Atomic              Coordinates (Angstroms)
 Number     Number      Type              X           Y           Z
 ---------------------------------------------------------------------
    1          6             0       -2.416051    0.708237    0.000001
    2          6             0       -1.242701    1.392594   -0.000011
    3          6             0       -0.000008    0.704681    0.000002
    4          6             0       -0.000010   -0.704684    0.000000
    5          6             0       -1.242705   -1.392594   -0.000001
    6          6             0       -2.416054   -0.708234    0.000006
    7          1             0        1.240429    2.468753    0.000001
    8          1             0       -3.351945    1.237951    0.000002
    9          1             0       -1.240435    2.468746   -0.000012
   10          6             0        1.242719    1.392601    0.000006
   11          6             0        1.242718   -1.392601   -0.000003
   12          1             0       -1.240441   -2.468746    0.000001
   13          1             0       -3.351950   -1.237944    0.000008
   14          6             0        2.416044   -0.708251   -0.000007
   15          6             0        2.416047    0.708252    0.000006
   16          1             0        1.240442   -2.468752    0.000003
   17          1             0        3.351949   -1.237948   -0.000005
   18          1             0        3.351954    1.237942    0.000006
 ---------------------------------------------------------------------

 SCF Done:  E(RB+HF-LYP) =  -385.987395985     A.U. after   11 cycles

 The electronic state is 1-A.
 Alpha  occ. eigenvalues --  -10.18597 -10.18548 -10.17700 -10.17698 -10.17688
 Alpha  occ. eigenvalues --  -10.17686 -10.17628 -10.17628 -10.17595 -10.17595
 Alpha  occ. eigenvalues --   -0.88510  -0.83198  -0.78165  -0.74923  -0.72990
 Alpha  occ. eigenvalues --   -0.63217  -0.62029  -0.60620  -0.52571  -0.51672
 Alpha  occ. eigenvalues --   -0.50373  -0.45525  -0.45092  -0.42654  -0.42595
 Alpha  occ. eigenvalues --   -0.40993  -0.40069  -0.37562  -0.34652  -0.33875
 Alpha  occ. eigenvalues --   -0.33783  -0.29398  -0.25345  -0.22795
 Alpha virt. eigenvalues --   -0.04752  -0.02165  -0.00707   0.00279   0.00504
 Alpha virt. eigenvalues --    0.00613   0.02385   0.02427   0.04619   0.04924
 Alpha virt. eigenvalues --    0.05304   0.05614   0.06881   0.07912   0.07934

 Mulliken atomic charges:
              1
     1  C   -0.234401
     2  C   -0.100479
     3  C    0.101870
     4  C    0.101866
     5  C   -0.100483
     6  C   -0.234403
     7  H    0.124893
     8  H    0.159071
     9  H    0.124894
    10  C   -0.100513
    11  C   -0.100519
    12  H    0.124894
    13  H    0.159071
    14  C   -0.234392
    15  C   -0.234403
    16  H    0.124893
    17  H    0.159072
    18  H    0.159072
 Sum of Mulliken charges=   0.00000

 Dipole moment (field-independent basis, Debye):
    X=     0.0000    Y=     0.0000    Z=     0.0000  Tot=     0.0000
 Quadrupole moment (field-independent basis, Debye-Ang):
   XX=   -52.0169   YY=   -52.1251   ZZ=   -64.3504
   XY=     0.0000   XZ=     0.0000   YZ=     0.0000

  Exact polarizability: 163.482   0.010 118.025   0.000  -0.055  61.226
 Approx polarizability: 271.373   0.000 204.833   0.000   0.000  94.372

                     1                      2                      3
                     A                      A                      A
 Frequencies --   117.5244               167.6142               350.5701
 Red. masses --     3.9286                 3.1923                 3.7313
 Frc consts  --     0.0320                 0.0528                 0.2702
 IR Inten    --     3.1349                 0.0000                 1.4435

                     4                      5                      6
                     A                      A                      A
 Frequencies --   370.6537               457.0554               465.6345
 Red. masses --     3.0128                 3.0332                 2.1989
 Frc consts  --     0.2439                 0.3733                 0.2809
 IR Inten    --     0.0000                 0.0001                32.1924

                     7                      8                      9
                     A                      A                      A
 Frequencies --   519.6802               521.1374               621.2092
 Red. masses --     7.0202                 6.5958                 3.1952
 Frc consts  --     1.1171                 1.0554                 0.7265
 IR Inten    --     0.0008                 0.0000                 0.0001

                    10                     11                     12
                     A                      A                      A
 Frequencies --   632.9753               677.7361               764.1132
 Red. masses --     6.2807                 1.1491                 1.4586
 Frc consts  --     1.4826                 0.3110                 0.5018
 IR Inten    --     3.8801                 0.0000               116.9884

                    13                     14                     15
                     A                      A                      A
 Frequencies --   772.3260               783.8077               809.0304
 Red. masses --     2.3723                 4.3035                 1.3159
 Frc consts  --     0.8337                 1.5577                 0.5075
 IR Inten    --     0.0001                 0.0001                 0.0014

                    16                     17                     18
                     A                      A                      A
 Frequencies --   809.0425               868.8330               936.6781
 Red. masses --     5.0395                 2.1087                 1.3327
 Frc consts  --     1.9435                 0.9379                 0.6889
 IR Inten    --     0.0914                 0.0007                 0.0001

                    19                     20                     21
                     A                      A                      A
 Frequencies --   949.9820               956.7279               966.2106
 Red. masses --     4.8815                 1.4306                 1.3218
 Frc consts  --     2.5956                 0.7715                 0.7270
 IR Inten    --     0.0009                 4.4610                 0.0001

                    22                     23                     24
                     A                      A                      A
 Frequencies --   974.3048              1034.1864              1043.5333
 Red. masses --     1.3318                 2.4582                 2.0853
 Frc consts  --     0.7449                 1.5491                 1.3379
 IR Inten    --     0.0004                 9.5005                 0.0005

                    25                     26                     27
                     A                      A                      A
 Frequencies --  1152.8572              1167.9892              1173.7813
 Red. masses --     1.6225                 1.1443                 1.0582
 Frc consts  --     1.2706                 0.9197                 0.8590
 IR Inten    --     6.5862                 1.3025                 0.0000

                    28                     29                     30
                     A                      A                      A
 Frequencies --  1174.9449              1227.4955              1262.1471
 Red. masses --     1.1669                 2.1180                 1.6453
 Frc consts  --     0.9491                 1.8802                 1.5443
 IR Inten    --     0.0000                 0.7857                 0.0004

                    31                     32                     33
                     A                      A                      A
 Frequencies --  1283.4995              1407.9684              1438.2065
 Red. masses --     1.7971                 1.6545                 4.4155
 Frc consts  --     1.7443                 1.9324                 5.3812
 IR Inten    --     6.2429                 4.7697                 0.6003

                    34                     35                     36
                     A                      A                      A
 Frequencies --  1449.5275              1486.8550              1494.3057
 Red. masses --     5.8013                 2.2593                 2.7044
 Frc consts  --     7.1817                 2.9428                 3.5579
 IR Inten    --     0.0000                 0.0000                 0.0001

                    37                     38                     39
                     A                      A                      A
 Frequencies --  1544.3176              1656.4083              1682.6251
 Red. masses --     3.6179                 7.6246                 5.7283
 Frc consts  --     5.0838                12.3254                 9.5554
 IR Inten    --     7.4469                 0.0006                 1.8542

                    40                     41                     42
                     A                      A                      A
 Frequencies --  1699.7305              3237.0441              3238.6677
 Red. masses --     6.5337                 1.0851                 1.0851
 Frc consts  --    11.1217                 6.6994                 6.7059
 IR Inten    --     0.0002                 0.0008                 3.9096

                    43                     44                     45
                     A                      A                      A
 Frequencies --  3241.4763              3244.6741              3255.5174
 Red. masses --     1.0879                 1.0873                 1.0944
 Frc consts  --     6.7351                 6.7445                 6.8340
 IR Inten    --     1.5176                 0.0005                 0.0043

                    46                     47                     48
                     A                      A                      A
 Frequencies --  3256.9607              3267.1697              3268.2927
 Red. masses --     1.0944                 1.0978                 1.0974
 Frc consts  --     6.8399                 6.9041                 6.9064
 IR Inten    --    55.9663                39.4275                 0.0006

 - Thermochemistry -
 -------------------
 Temperature   298.150 Kelvin.  Pressure   1.00000 Atm.
 Atom  1 has atomic number  6 and mass  12.00000

 Molecular mass:   128.06260 amu.
 Principal axes and moments of inertia in atomic units:
                           1         2         3
     EIGENVALUES --   570.765171449.190822019.95599
           X            1.00000   0.00000   0.00000
           Y            0.00000   1.00000   0.00000
           Z            0.00000   0.00000   1.00000
 This molecule is an asymmetric top.
 Rotational symmetry number  1.
 Warning -- assumption of classical behavior for rotation
           may cause significant error
 Rotational temperatures (Kelvin)      0.15175     0.05977     0.04288
 Rotational constants (GHZ):           3.16197     1.24534     0.89346
 Zero-point vibrational energy     388086.7 (Joules/Mol)
                                   92.75495 (Kcal/Mol)
 Warning -- explicit consideration of   8 degrees of freedom as
           vibrations may cause significant error
 Vibrational temperatures:    169.09   241.16   504.39   533.29   657.60
          (Kelvin)            669.94   747.70   749.80   893.78   910.71
                              975.11  1099.39  1111.20  1127.72  1164.01
                             1164.03  1250.06  1347.67  1366.81  1376.52
                             1390.16  1401.81  1487.96  1501.41  1658.70
                             1680.47  1688.81  1690.48  1766.09  1815.95
                             1846.67  2025.75  2069.26  2085.54  2139.25
                             2149.97  2221.93  2383.20  2420.92  2445.53
                             4657.38  4659.71  4663.76  4668.36  4683.96
                             4686.03  4700.72  4702.34

 Zero-point correction=                           0.147814 (Hartree/Particle)
 Thermal correction to Energy=                    0.154913
 Thermal correction to Enthalpy=                  0.155857
 Thermal correction to Gibbs Free Energy=         0.116211
 Sum of electronic and zero-point Energies=           -385.839582
 Sum of electronic and thermal Energies=              -385.832483
 Sum of electronic and thermal Enthalpies=            -385.831539
 Sum of electronic and thermal Free Energies=         -385.871185

                     E (Thermal)             CV                S
                      KCal/Mol        Cal/Mol-Kelvin    Cal/Mol-Kelvin
 Total                   97.209             29.545             83.441
 Electronic               0.000              0.000              0.000
 Translational            0.889              2.981             40.455
 Rotational               0.889              2.981             28.904
 Vibrational             95.432             23.583             14.082
 Vibration  1             0.608              1.935              3.141
 Vibration  2             0.624              1.882              2.462
 Vibration  3             0.727              1.574              1.164
 Vibration  4             0.743              1.532              1.077
 Vibration  5             0.815              1.345              0.775
 Vibration  6             0.823              1.326              0.750
 Vibration  7             0.875              1.206              0.611
 Vibration  8             0.876              1.203              0.607

 Normal termination of Gaussian 03 at Sun Aug 31 03:40:22 2014.
