 Gaussian 03, Revision D.01,
 Gaussian 03:  IA32L-G03RevD.01 13-Oct-2005

 ----------------------------------------------------------------------
 # opt freq=noraman rb3lyp/6-311g geom=Check Guess=Read freq=ReadIsotop
 es
 ----------------------------------------------------------------------

 Methane(62), 13CH4
 ------------------
 Redundant internal coordinates taken from checkpoint file:
 methane_3.chk
 Charge =  0 Multiplicity = 1

 SCF Done:  E(RB+HF-LYP) =  -40.5206265270     A.U. after    1 cycles
 Optimization completed.
    -- Stationary point found.
 Normal termination of Gaussian 03 at Sun Aug 31 16:44:05 2014.

 ----------------------------------------------------------------
 #N Geom=AllCheck Guess=Read SCRF=Check GenChk RB3LYP/6-311G Freq
 ----------------------------------------------------------------

 Methane(62), 13CH4
 ------------------
 Redundant internal coordinates taken from checkpoint file:
 methane_3.chk
 Charge =  0 Multiplicity = 1

                         Standard orientation:
 ---------------------------------------------------------------------
 Center     Atomic     Atomic              Coordinates (Angstroms)
 Number     Number      Type              X           Y           Z
 ---------------------------------------------------------------------
    1          6             0        0.000000    0.000000    0.000000
    2          1             0        0.628460    0.628460    0.628460
    3          1             0       -0.628460   -0.628460    0.628460
    4          1             0       -0.628460    0.628460   -0.628460
    5          1             0        0.628460   -0.628460   -0.628460
 ---------------------------------------------------------------------

 SCF Done:  E(RB+HF-LYP) =  -40.5206265270     A.U. after    1 cycles

 The electronic state is 1-A1.
 Alpha  occ. eigenvalues --  -10.15070  -0.70027  -0.39704  -0.39704  -0.39704
 Alpha virt. eigenvalues --    0.05333   0.12473   0.12473   0.12473   0.28134
 Alpha virt. eigenvalues --    0.28134   0.28134   0.54303   0.59435   0.59435
 Alpha virt. eigenvalues --    0.59435   0.77996   2.22239   2.22239   2.22239

 Mulliken atomic charges:
              1
     1  C   -0.716510
     2  H    0.179127
     3  H    0.179127
     4  H    0.179127
     5  H    0.179127
 Sum of Mulliken charges=   0.00000

 Dipole moment (field-independent basis, Debye):
    X=     0.0000    Y=     0.0000    Z=     0.0000  Tot=     0.0000
 Quadrupole moment (field-independent basis, Debye-Ang):
   XX=    -8.4931   YY=    -8.4931   ZZ=    -8.4931
   XY=     0.0000   XZ=     0.0000   YZ=     0.0000

  Exact polarizability:  12.874   0.000  12.874   0.000   0.000  12.874
 Approx polarizability:  14.892   0.000  14.892   0.000   0.000  14.892

                     1                      2                      3
                    T2                     T2                     T2
 Frequencies --  1384.6091              1384.6091              1384.6091
 Red. masses --     1.1740                 1.1740                 1.1740
 Frc consts  --     1.3260                 1.3260                 1.3260
 IR Inten    --    28.3705                28.3705                28.3705

                     4                      5                      6
                     E                      E                     A1
 Frequencies --  1600.0880              1600.0880              3018.3623
 Red. masses --     1.0078                 1.0078                 1.0078
 Frc consts  --     1.5203                 1.5203                 5.4098
 IR Inten    --     0.0000                 0.0000                 0.0000

                     7                      8                      9
                    T2                     T2                     T2
 Frequencies --  3122.0888              3122.0888              3122.0888
 Red. masses --     1.0917                 1.0917                 1.0917
 Frc consts  --     6.2694                 6.2694                 6.2694
 IR Inten    --    38.1738                38.1738                38.1738

 - Thermochemistry -
 -------------------
 Temperature   298.150 Kelvin.  Pressure   1.00000 Atm.
 Atom  1 has atomic number  6 and mass  13.00335

 Molecular mass:    17.03465 amu.
 Principal axes and moments of inertia in atomic units:
                           1         2         3
     EIGENVALUES --    11.37179  11.37179  11.37179
           X            0.00000   0.12761   0.99182
           Y            0.00000   0.99182  -0.12761
           Z            1.00000   0.00000   0.00000
 This molecule is a spherical top.
 Rotational symmetry number 12.
 Rotational temperatures (Kelvin)      7.61655     7.61655     7.61655
 Rotational constants (GHZ):         158.70337   158.70337   158.70337
 Zero-point vibrational energy     118063.2 (Joules/Mol)
                                   28.21779 (Kcal/Mol)
 Vibrational temperatures:   1992.14  1992.14  1992.14  2302.17  2302.17
          (Kelvin)           4342.74  4491.98  4491.98  4491.98

 Zero-point correction=                           0.044968 (Hartree/Particle)
 Thermal correction to Energy=                    0.047831
 Thermal correction to Enthalpy=                  0.048775
 Thermal correction to Gibbs Free Energy=         0.027571
 Sum of electronic and zero-point Energies=            -40.475659
 Sum of electronic and thermal Energies=               -40.472796
 Sum of electronic and thermal Enthalpies=             -40.471852
 Sum of electronic and thermal Free Energies=          -40.493055

                     E (Thermal)             CV                S
                      KCal/Mol        Cal/Mol-Kelvin    Cal/Mol-Kelvin
 Total                   30.014              6.402             44.627
 Electronic               0.000              0.000              0.000
 Translational            0.889              2.981             34.442
 Rotational               0.889              2.981             10.112
 Vibrational             28.237              0.440              0.073

 Optimization completed.
    -- Stationary point found.
 Normal termination of Gaussian 03 at Sun Aug 31 16:44:11 2014.
