 Gaussian 03, Revision D.01,

 --------------------------------------------------
 # opt freq=noraman rb3lyp/6-311g geom=connectivity
 --------------------------------------------------

 ------------------
 Methane(61), 12CH4
 ------------------
 Symbolic Z-matrix:
 Charge =  0 Multiplicity = 1

 SCF Done:  E(RB+HF-LYP) =  -40.5197046797     A.U. after   10 cycles
 SCF Done:  E(RB+HF-LYP) =  -40.5206265270     A.U. after    9 cycles
 Optimization completed.
    -- Stationary point found.
 Normal termination of Gaussian 03 at Sun Aug 31 15:52:51 2014.

 ----------------------------------------------------------------
 #N Geom=AllCheck Guess=Read SCRF=Check GenChk RB3LYP/6-311G Freq
 ----------------------------------------------------------------

 Methane(61), 12CH4
 ------------------
 Redundant internal coordinates taken from checkpoint file:
 methane_61-65_2.chk
 Charge =  0 Multiplicity = 1

 SCF Done:  E(RB+HF-LYP) =  -40.5206265270     A.U. after    1 cycles
 Optimization completed.
 Normal termination of Gaussian 03 at Sun Aug 31 15:52:57 2014.

 ----------------------------------------------------------------------
 # opt freq=noraman rb3lyp/6-311g geom=Check Guess=Read freq=ReadIsotop
 es
 ----------------------------------------------------------------------

 Methane(62), 13CH4
 ------------------
 Redundant internal coordinates taken from checkpoint file:
 methane_61-65_2.chk
 Charge =  0 Multiplicity = 1

 SCF Done:  E(RB+HF-LYP) =  -40.5206265270     A.U. after    1 cycles
 Normal termination of Gaussian 03 at Sun Aug 31 15:53:00 2014.

 ----------------------------------------------------------------
 #N Geom=AllCheck Guess=Read SCRF=Check GenChk RB3LYP/6-311G Freq
 ----------------------------------------------------------------

 Methane(62), 13CH4
 ------------------
 Redundant internal coordinates taken from checkpoint file:
 methane_61-65_2.chk
 Charge =  0 Multiplicity = 1

 SCF Done:  E(RB+HF-LYP) =  -40.5206265270     A.U. after    1 cycles
 Normal termination of Gaussian 03 at Sun Aug 31 15:53:06 2014.

 ----------------------------------------------------------------------
 # opt freq=noraman rb3lyp/6-311g geom=Check Guess=Read freq=ReadIsotop
 es
 ----------------------------------------------------------------------

 Methane(63), 12CH3D
 -------------------
 Redundant internal coordinates taken from checkpoint file:
 methane_61-65_2.chk
 Charge =  0 Multiplicity = 1

 SCF Done:  E(RB+HF-LYP) =  -40.5206265270     A.U. after    1 cycles

 ----------------------------------------------------------------
 #N Geom=AllCheck Guess=Read SCRF=Check GenChk RB3LYP/6-311G Freq
 ----------------------------------------------------------------

 Methane(63), 12CH3D
 -------------------
 Redundant internal coordinates taken from checkpoint file:
 methane_61-65_2.chk
 Charge =  0 Multiplicity = 1

 SCF Done:  E(RB+HF-LYP) =  -40.5206265270     A.U. after    1 cycles
 SCF Done:  E(RB+HF-LYP) =  -40.5206265270     A.U. after    1 cycles
 Normal termination of Gaussian 03 at Sun Aug 31 15:53:18 2014.
 SCF Done:  E(RB+HF-LYP) =  -40.5206265270     A.U. after    1 cycles
 Normal termination of Gaussian 03 at Sun Aug 31 15:53:23 2014.
 Gaussian 03:  IA32L-G03RevD.01 13-Oct-2005
 SCF Done:  E(RB+HF-LYP) =  -40.5206265270     A.U. after    1 cycles
    -- Stationary point found.
 Normal termination of Gaussian 03 at Sun Aug 31 15:53:26 2014.

                         Standard orientation:
 ---------------------------------------------------------------------
 Center     Atomic     Atomic              Coordinates (Angstroms)
 Number     Number      Type              X           Y           Z
 ---------------------------------------------------------------------
    1          6             0        0.000000    0.000000    0.000000
    2          1             0        0.628460    0.628460    0.628460
    3          1             0       -0.628460   -0.628460    0.628460
    4          1             0       -0.628460    0.628460   -0.628460
    5          1             0        0.628460   -0.628460   -0.628460
 ---------------------------------------------------------------------

 SCF Done:  E(RB+HF-LYP) =  -40.5206265270     A.U. after    1 cycles

 The electronic state is 1-A1.
 Alpha  occ. eigenvalues --  -10.15070  -0.70027  -0.39704  -0.39704  -0.39704
 Alpha virt. eigenvalues --    0.05333   0.12473   0.12473   0.12473   0.28134
 Alpha virt. eigenvalues --    0.28134   0.28134   0.54303   0.59435   0.59435
 Alpha virt. eigenvalues --    0.59435   0.77996   2.22239   2.22239   2.22239

 Mulliken atomic charges:
              1
     1  C   -0.716510
     2  H    0.179127
     3  H    0.179127
     4  H    0.179127
     5  H    0.179127
 Sum of Mulliken charges=   0.00000

 Dipole moment (field-independent basis, Debye):
    X=     0.0000    Y=     0.0000    Z=     0.0000  Tot=     0.0000
 Quadrupole moment (field-independent basis, Debye-Ang):
   XX=    -8.4931   YY=    -8.4931   ZZ=    -8.4931
   XY=     0.0000   XZ=     0.0000   YZ=     0.0000

  Exact polarizability:  12.874   0.000  12.874   0.000   0.000  12.874
 Approx polarizability:  14.892   0.000  14.892   0.000   0.000  14.892

                     1                      2                      3
                    ?A                     ?A                     ?A
 Frequencies --  1085.6023              1156.1728              1311.8620
 Red. masses --     2.2825                 1.7876                 1.2719
 Frc consts  --     1.5849                 1.4078                 1.2897
 IR Inten    --    12.3470                20.0257                26.9976

                     4                      5                      6
                    ?A                     ?A                     ?A
 Frequencies --  1385.9146              1506.4405              2221.3508
 Red. masses --     1.2093                 1.0704                 2.1264
 Frc consts  --     1.3686                 1.4312                 6.1820
 IR Inten    --     0.0000                11.0553                 5.8528

                     7                      8                      9
                    ?A                     ?A                     ?A
 Frequencies --  2317.4912              3080.9637              3132.1198
 Red. masses --     2.3572                 1.0626                 1.0997
 Frc consts  --     7.4591                 5.9430                 6.3563
 IR Inten    --    16.2574                20.6966                36.6227

 - Thermochemistry -
 -------------------
 Temperature   298.150 Kelvin.  Pressure   1.00000 Atm.
 Atom  1 has atomic number  6 and mass  12.00000

 Molecular mass:    18.04385 amu.
 Principal axes and moments of inertia in atomic units:
                           1         2         3
     EIGENVALUES --    13.89376  17.04895  19.57092
           X            0.70711   0.00000   0.70711
           Y            0.70711   0.00000  -0.70711
           Z            0.00000   1.00000   0.00000
 This molecule is an asymmetric top.
 Rotational symmetry number 12.
 Rotational temperatures (Kelvin)      6.23401     5.08030     4.42564
 Rotational constants (GHZ):         129.89579   105.85646    92.21544
 Zero-point vibrational energy     102866.4 (Joules/Mol)
                                   24.58566 (Kcal/Mol)
 Vibrational temperatures:   1561.94  1663.47  1887.47  1994.02  2167.43
          (Kelvin)           3196.02  3334.35  4432.81  4506.42

 Zero-point correction=                           0.039180 (Hartree/Particle)
 Thermal correction to Energy=                    0.042082
 Thermal correction to Enthalpy=                  0.043027
 Thermal correction to Gibbs Free Energy=         0.021152
 Sum of electronic and zero-point Energies=            -40.481447
 Sum of electronic and thermal Energies=               -40.478544
 Sum of electronic and thermal Enthalpies=             -40.477600
 Sum of electronic and thermal Free Energies=          -40.499475

                     E (Thermal)             CV                S
                      KCal/Mol        Cal/Mol-Kelvin    Cal/Mol-Kelvin
 Total                   26.407              6.825             46.039
 Electronic               0.000              0.000              0.000
 Translational            0.889              2.981             34.614
 Rotational               0.889              2.981             11.252
 Vibrational             24.630              0.863              0.173

 Optimization completed.
    -- Stationary point found.
 Normal termination of Gaussian 03 at Sun Aug 31 15:53:32 2014.
